# vtk DataFile Version 3.0
Monodomain MVF
ASCII
DATASET POLYDATA
POINTS 50 float
0 0 0
0.08 0 0
0.16 0 0
0.24 0 0
0.32 0 0
0.4 0 0
0.48 0 0
0.56 0 0
0.64 0 0
0.72 0 0
0.8 0 0
0.88 0 0
0.96 0 0
1.04 0 0
1.12 0 0
1.2 0 0
1.28 0 0
1.36 0 0
1.44 0 0
1.52 0 0
1.6 0 0
1.68 0 0
1.76 0 0
1.84 0 0
1.92 0 0
2 0 0
2.08 0 0
2.16 0 0
2.24 0 0
2.32 0 0
2.4 0 0
2.48 0 0
2.56 0 0
2.64 0 0
2.72 0 0
2.8 0 0
2.88 0 0
2.96 0 0
3.04 0 0
3.12 0 0
3.2 0 0
3.28 0 0
3.36 0 0
3.44 0 0
3.52 0 0
3.6 0 0
3.68 0 0
3.76 0 0
3.84 0 0
3.92 0 0
LINES 49 147
2 0 1
2 1 2
2 2 3
2 3 4
2 4 5
2 5 6
2 6 7
2 7 8
2 8 9
2 9 10
2 10 11
2 11 12
2 12 13
2 13 14
2 14 15
2 15 16
2 16 17
2 17 18
2 18 19
2 19 20
2 20 21
2 21 22
2 22 23
2 23 24
2 24 25
2 25 26
2 26 27
2 27 28
2 28 29
2 29 30
2 30 31
2 31 32
2 32 33
2 33 34
2 34 35
2 35 36
2 36 37
2 37 38
2 38 39
2 39 40
2 40 41
2 41 42
2 42 43
2 43 44
2 44 45
2 45 46
2 46 47
2 47 48
2 48 49
POINT_DATA 50
SCALARS vm float 1
LOOKUP_TABLE default
0.916827
0.89539
0.869215
0.837678
0.800284
0.756777
0.707259
0.652291
0.592942
0.530751
0.46759
0.405451
0.3462
0.291364
0.241999
0.198653
0.161418
0.13003
0.103988
0.0826661
0.0653971
0.0515329
0.0404806
0.0317195
0.0248055
0.0193684
0.0151046
0.0117682
0.00916186
0.00712861
0.00554407
0.00431021
0.00335003
0.00260318
0.0020225
0.00157115
0.00122039
0.000947873
0.000736162
0.00057171
0.000443979
0.000344776
0.000267733
0.000207902
0.00016144
0.00012536
9.73421e-05
7.5586e-05
5.86921e-05
4.5574e-05
