# vtk DataFile Version 3.0
Monodomain MVF
ASCII
DATASET POLYDATA
POINTS 50 float
0 0 0
0.08 0 0
0.16 0 0
0.24 0 0
0.32 0 0
0.4 0 0
0.48 0 0
0.56 0 0
0.64 0 0
0.72 0 0
0.8 0 0
0.88 0 0
0.96 0 0
1.04 0 0
1.12 0 0
1.2 0 0
1.28 0 0
1.36 0 0
1.44 0 0
1.52 0 0
1.6 0 0
1.68 0 0
1.76 0 0
1.84 0 0
1.92 0 0
2 0 0
2.08 0 0
2.16 0 0
2.24 0 0
2.32 0 0
2.4 0 0
2.48 0 0
2.56 0 0
2.64 0 0
2.72 0 0
2.8 0 0
2.88 0 0
2.96 0 0
3.04 0 0
3.12 0 0
3.2 0 0
3.28 0 0
3.36 0 0
3.44 0 0
3.52 0 0
3.6 0 0
3.68 0 0
3.76 0 0
3.84 0 0
3.92 0 0
LINES 49 147
2 0 1
2 1 2
2 2 3
2 3 4
2 4 5
2 5 6
2 6 7
2 7 8
2 8 9
2 9 10
2 10 11
2 11 12
2 12 13
2 13 14
2 14 15
2 15 16
2 16 17
2 17 18
2 18 19
2 19 20
2 20 21
2 21 22
2 22 23
2 23 24
2 24 25
2 25 26
2 26 27
2 27 28
2 28 29
2 29 30
2 30 31
2 31 32
2 32 33
2 33 34
2 34 35
2 35 36
2 36 37
2 37 38
2 38 39
2 39 40
2 40 41
2 41 42
2 42 43
2 43 44
2 44 45
2 45 46
2 46 47
2 47 48
2 48 49
POINT_DATA 50
SCALARS vm float 1
LOOKUP_TABLE default
0.973403
0.966007
0.956646
0.944854
0.93009
0.911742
0.889152
0.861657
0.828657
0.789707
0.744631
0.693641
0.637427
0.577186
0.514558
0.45147
0.389904
0.331658
0.278145
0.230292
0.188522
0.152823
0.122861
0.0980934
0.0778752
0.0615399
0.048451
0.0380332
0.0297853
0.0232828
0.0181732
0.0141687
0.0110367
0.00859099
0.00668358
0.00519744
0.00404041
0.00314014
0.00243998
0.00189563
0.00147255
0.00114378
0.000888353
0.000689927
0.000535798
0.000416087
0.000323114
0.00025091
0.000194838
0.000151295
