<?xml version="1.0"?>
<VTKFile type="UnstructuredGrid"  version="0.1"  >
<UnstructuredGrid>
<Piece  NumberOfPoints="5121" NumberOfCells="5120">
<Points>
<DataArray  type="Float64"  NumberOfComponents="3"  format="ascii">0 0 0  0.001953125 0 0  0.00390625 0 0  0.005859375 0 0  0.0078125 0 0  0.009765625 0 0  0.01171875 0 0  0.013671875 0 0  0.015625 0 0  0.017578125 0 0  0.01953125 0 0  0.021484375 0 0  0.0234375 0 0  0.025390625 0 0  0.02734375 0 0  0.029296875 0 0  0.03125 0 0  0.033203125 0 0  0.03515625 0 0  0.037109375 0 0  0.0390625 0 0  0.041015625 0 0  0.04296875 0 0  0.044921875 0 0  0.046875 0 0  0.048828125 0 0  0.05078125 0 0  0.052734375 0 0  0.0546875 0 0  0.056640625 0 0  0.05859375 0 0  0.060546875 0 0  0.0625 0 0  0.064453125 0 0  0.06640625 0 0  0.068359375 0 0  0.0703125 0 0  0.072265625 0 0  0.07421875 0 0  0.076171875 0 0  0.078125 0 0  0.080078125 0 0  0.08203125 0 0  0.083984375 0 0  0.0859375 0 0  0.087890625 0 0  0.08984375 0 0  0.091796875 0 0  0.09375 0 0  0.095703125 0 0  0.09765625 0 0  0.099609375 0 0  0.1015625 0 0  0.103515625 0 0  0.10546875 0 0  0.107421875 0 0  0.109375 0 0  0.111328125 0 0  0.11328125 0 0  0.115234375 0 0  0.1171875 0 0  0.119140625 0 0  0.12109375 0 0  0.123046875 0 0  0.125 0 0  0.126953125 0 0  0.12890625 0 0  0.130859375 0 0  0.1328125 0 0  0.134765625 0 0  0.13671875 0 0  0.138671875 0 0  0.140625 0 0  0.142578125 0 0  0.14453125 0 0  0.146484375 0 0  0.1484375 0 0  0.150390625 0 0  0.15234375 0 0  0.154296875 0 0  0.15625 0 0  0.158203125 0 0  0.16015625 0 0  0.162109375 0 0  0.1640625 0 0  0.166015625 0 0  0.16796875 0 0  0.169921875 0 0  0.171875 0 0  0.173828125 0 0  0.17578125 0 0  0.177734375 0 0  0.1796875 0 0  0.181640625 0 0  0.18359375 0 0  0.185546875 0 0  0.1875 0 0  0.189453125 0 0  0.19140625 0 0  0.193359375 0 0  0.1953125 0 0  0.197265625 0 0  0.19921875 0 0  0.201171875 0 0  0.203125 0 0  0.205078125 0 0  0.20703125 0 0  0.208984375 0 0  0.2109375 0 0  0.212890625 0 0  0.21484375 0 0  0.216796875 0 0  0.21875 0 0  0.220703125 0 0  0.22265625 0 0  0.224609375 0 0  0.2265625 0 0  0.228515625 0 0  0.23046875 0 0  0.232421875 0 0  0.234375 0 0  0.236328125 0 0  0.23828125 0 0  0.240234375 0 0  0.2421875 0 0  0.244140625 0 0  0.24609375 0 0  0.248046875 0 0  0.25 0 0  0.251953125 0 0  0.25390625 0 0  0.255859375 0 0  0.2578125 0 0  0.259765625 0 0  0.26171875 0 0  0.263671875 0 0  0.265625 0 0  0.267578125 0 0  0.26953125 0 0  0.271484375 0 0  0.2734375 0 0  0.275390625 0 0  0.27734375 0 0  0.279296875 0 0  0.28125 0 0  0.283203125 0 0  0.28515625 0 0  0.287109375 0 0  0.2890625 0 0  0.291015625 0 0  0.29296875 0 0  0.294921875 0 0  0.296875 0 0  0.298828125 0 0  0.30078125 0 0  0.302734375 0 0  0.3046875 0 0  0.306640625 0 0  0.30859375 0 0  0.310546875 0 0  0.3125 0 0  0.314453125 0 0  0.31640625 0 0  0.318359375 0 0  0.3203125 0 0  0.322265625 0 0  0.32421875 0 0  0.326171875 0 0  0.328125 0 0  0.330078125 0 0  0.33203125 0 0  0.333984375 0 0  0.3359375 0 0  0.337890625 0 0  0.33984375 0 0  0.341796875 0 0  0.34375 0 0  0.345703125 0 0  0.34765625 0 0  0.349609375 0 0  0.3515625 0 0  0.353515625 0 0  0.35546875 0 0  0.357421875 0 0  0.359375 0 0  0.361328125 0 0  0.36328125 0 0  0.365234375 0 0  0.3671875 0 0  0.369140625 0 0  0.37109375 0 0  0.373046875 0 0  0.375 0 0  0.376953125 0 0  0.37890625 0 0  0.380859375 0 0  0.3828125 0 0  0.384765625 0 0  0.38671875 0 0  0.388671875 0 0  0.390625 0 0  0.392578125 0 0  0.39453125 0 0  0.396484375 0 0  0.3984375 0 0  0.400390625 0 0  0.40234375 0 0  0.404296875 0 0  0.40625 0 0  0.408203125 0 0  0.41015625 0 0  0.412109375 0 0  0.4140625 0 0  0.416015625 0 0  0.41796875 0 0  0.419921875 0 0  0.421875 0 0  0.423828125 0 0  0.42578125 0 0  0.427734375 0 0  0.4296875 0 0  0.431640625 0 0  0.43359375 0 0  0.435546875 0 0  0.4375 0 0  0.439453125 0 0  0.44140625 0 0  0.443359375 0 0  0.4453125 0 0  0.447265625 0 0  0.44921875 0 0  0.451171875 0 0  0.453125 0 0  0.455078125 0 0  0.45703125 0 0  0.458984375 0 0  0.4609375 0 0  0.462890625 0 0  0.46484375 0 0  0.466796875 0 0  0.46875 0 0  0.470703125 0 0  0.47265625 0 0  0.474609375 0 0  0.4765625 0 0  0.478515625 0 0  0.48046875 0 0  0.482421875 0 0  0.484375 0 0  0.486328125 0 0  0.48828125 0 0  0.490234375 0 0  0.4921875 0 0  0.494140625 0 0  0.49609375 0 0  0.498046875 0 0  0.5 0 0  0.501953125 0 0  0.50390625 0 0  0.505859375 0 0  0.5078125 0 0  0.509765625 0 0  0.51171875 0 0  0.513671875 0 0  0.515625 0 0  0.517578125 0 0  0.51953125 0 0  0.521484375 0 0  0.5234375 0 0  0.525390625 0 0  0.52734375 0 0  0.529296875 0 0  0.53125 0 0  0.533203125 0 0  0.53515625 0 0  0.537109375 0 0  0.5390625 0 0  0.541015625 0 0  0.54296875 0 0  0.544921875 0 0  0.546875 0 0  0.548828125 0 0  0.55078125 0 0  0.552734375 0 0  0.5546875 0 0  0.556640625 0 0  0.55859375 0 0  0.560546875 0 0  0.5625 0 0  0.564453125 0 0  0.56640625 0 0  0.568359375 0 0  0.5703125 0 0  0.572265625 0 0  0.57421875 0 0  0.576171875 0 0  0.578125 0 0  0.580078125 0 0  0.58203125 0 0  0.583984375 0 0  0.5859375 0 0  0.587890625 0 0  0.58984375 0 0  0.591796875 0 0  0.59375 0 0  0.595703125 0 0  0.59765625 0 0  0.599609375 0 0  0.6015625 0 0  0.603515625 0 0  0.60546875 0 0  0.607421875 0 0  0.609375 0 0  0.611328125 0 0  0.61328125 0 0  0.615234375 0 0  0.6171875 0 0  0.619140625 0 0  0.62109375 0 0  0.623046875 0 0  0.625 0 0  0.626953125 0 0  0.62890625 0 0  0.630859375 0 0  0.6328125 0 0  0.634765625 0 0  0.63671875 0 0  0.638671875 0 0  0.640625 0 0  0.642578125 0 0  0.64453125 0 0  0.646484375 0 0  0.6484375 0 0  0.650390625 0 0  0.65234375 0 0  0.654296875 0 0  0.65625 0 0  0.658203125 0 0  0.66015625 0 0  0.662109375 0 0  0.6640625 0 0  0.666015625 0 0  0.66796875 0 0  0.669921875 0 0  0.671875 0 0  0.673828125 0 0  0.67578125 0 0  0.677734375 0 0  0.6796875 0 0  0.681640625 0 0  0.68359375 0 0  0.685546875 0 0  0.6875 0 0  0.689453125 0 0  0.69140625 0 0  0.693359375 0 0  0.6953125 0 0  0.697265625 0 0  0.69921875 0 0  0.701171875 0 0  0.703125 0 0  0.705078125 0 0  0.70703125 0 0  0.708984375 0 0  0.7109375 0 0  0.712890625 0 0  0.71484375 0 0  0.716796875 0 0  0.71875 0 0  0.720703125 0 0  0.72265625 0 0  0.724609375 0 0  0.7265625 0 0  0.728515625 0 0  0.73046875 0 0  0.732421875 0 0  0.734375 0 0  0.736328125 0 0  0.73828125 0 0  0.740234375 0 0  0.7421875 0 0  0.744140625 0 0  0.74609375 0 0  0.748046875 0 0  0.75 0 0  0.751953125 0 0  0.75390625 0 0  0.755859375 0 0  0.7578125 0 0  0.759765625 0 0  0.76171875 0 0  0.763671875 0 0  0.765625 0 0  0.767578125 0 0  0.76953125 0 0  0.771484375 0 0  0.7734375 0 0  0.775390625 0 0  0.77734375 0 0  0.779296875 0 0  0.78125 0 0  0.783203125 0 0  0.78515625 0 0  0.787109375 0 0  0.7890625 0 0  0.791015625 0 0  0.79296875 0 0  0.794921875 0 0  0.796875 0 0  0.798828125 0 0  0.80078125 0 0  0.802734375 0 0  0.8046875 0 0  0.806640625 0 0  0.80859375 0 0  0.810546875 0 0  0.8125 0 0  0.814453125 0 0  0.81640625 0 0  0.818359375 0 0  0.8203125 0 0  0.822265625 0 0  0.82421875 0 0  0.826171875 0 0  0.828125 0 0  0.830078125 0 0  0.83203125 0 0  0.833984375 0 0  0.8359375 0 0  0.837890625 0 0  0.83984375 0 0  0.841796875 0 0  0.84375 0 0  0.845703125 0 0  0.84765625 0 0  0.849609375 0 0  0.8515625 0 0  0.853515625 0 0  0.85546875 0 0  0.857421875 0 0  0.859375 0 0  0.861328125 0 0  0.86328125 0 0  0.865234375 0 0  0.8671875 0 0  0.869140625 0 0  0.87109375 0 0  0.873046875 0 0  0.875 0 0  0.876953125 0 0  0.87890625 0 0  0.880859375 0 0  0.8828125 0 0  0.884765625 0 0  0.88671875 0 0  0.888671875 0 0  0.890625 0 0  0.892578125 0 0  0.89453125 0 0  0.896484375 0 0  0.8984375 0 0  0.900390625 0 0  0.90234375 0 0  0.904296875 0 0  0.90625 0 0  0.908203125 0 0  0.91015625 0 0  0.912109375 0 0  0.9140625 0 0  0.916015625 0 0  0.91796875 0 0  0.919921875 0 0  0.921875 0 0  0.923828125 0 0  0.92578125 0 0  0.927734375 0 0  0.9296875 0 0  0.931640625 0 0  0.93359375 0 0  0.935546875 0 0  0.9375 0 0  0.939453125 0 0  0.94140625 0 0  0.943359375 0 0  0.9453125 0 0  0.947265625 0 0  0.94921875 0 0  0.951171875 0 0  0.953125 0 0  0.955078125 0 0  0.95703125 0 0  0.958984375 0 0  0.9609375 0 0  0.962890625 0 0  0.96484375 0 0  0.966796875 0 0  0.96875 0 0  0.970703125 0 0  0.97265625 0 0  0.974609375 0 0  0.9765625 0 0  0.978515625 0 0  0.98046875 0 0  0.982421875 0 0  0.984375 0 0  0.986328125 0 0  0.98828125 0 0  0.990234375 0 0  0.9921875 0 0  0.994140625 0 0  0.99609375 0 0  0.998046875 0 0  1 0 0  1.001953125 0 0  1.00390625 0 0  1.005859375 0 0  1.0078125 0 0  1.009765625 0 0  1.01171875 0 0  1.013671875 0 0  1.015625 0 0  1.017578125 0 0  1.01953125 0 0  1.021484375 0 0  1.0234375 0 0  1.025390625 0 0  1.02734375 0 0  1.029296875 0 0  1.03125 0 0  1.033203125 0 0  1.03515625 0 0  1.037109375 0 0  1.0390625 0 0  1.041015625 0 0  1.04296875 0 0  1.044921875 0 0  1.046875 0 0  1.048828125 0 0  1.05078125 0 0  1.052734375 0 0  1.0546875 0 0  1.056640625 0 0  1.05859375 0 0  1.060546875 0 0  1.0625 0 0  1.064453125 0 0  1.06640625 0 0  1.068359375 0 0  1.0703125 0 0  1.072265625 0 0  1.07421875 0 0  1.076171875 0 0  1.078125 0 0  1.080078125 0 0  1.08203125 0 0  1.083984375 0 0  1.0859375 0 0  1.087890625 0 0  1.08984375 0 0  1.091796875 0 0  1.09375 0 0  1.095703125 0 0  1.09765625 0 0  1.099609375 0 0  1.1015625 0 0  1.103515625 0 0  1.10546875 0 0  1.107421875 0 0  1.109375 0 0  1.111328125 0 0  1.11328125 0 0  1.115234375 0 0  1.1171875 0 0  1.119140625 0 0  1.12109375 0 0  1.123046875 0 0  1.125 0 0  1.126953125 0 0  1.12890625 0 0  1.130859375 0 0  1.1328125 0 0  1.134765625 0 0  1.13671875 0 0  1.138671875 0 0  1.140625 0 0  1.142578125 0 0  1.14453125 0 0  1.146484375 0 0  1.1484375 0 0  1.150390625 0 0  1.15234375 0 0  1.154296875 0 0  1.15625 0 0  1.158203125 0 0  1.16015625 0 0  1.162109375 0 0  1.1640625 0 0  1.166015625 0 0  1.16796875 0 0  1.169921875 0 0  1.171875 0 0  1.173828125 0 0  1.17578125 0 0  1.177734375 0 0  1.1796875 0 0  1.181640625 0 0  1.18359375 0 0  1.185546875 0 0  1.1875 0 0  1.189453125 0 0  1.19140625 0 0  1.19335937
[...]
<PointData  Scalars="f_323"> 
<DataArray  type="Float64"  Name="f_323"  format="ascii">0.0000000000000000e+00  1.9493127865986440e-03  3.8910110797988461e-03  5.8251097806200219e-03  7.7516237898551717e-03  9.6705680079583051e-03  1.1581957334932303e-02  1.3485806670217218e-02  1.5382130912579013e-02  1.7270944959998751e-02  1.9152263709562210e-02  2.1026102057349939e-02  2.2892474898327745e-02  2.4751397126237636e-02  2.6602883633489172e-02  2.8446949311051257e-02  3.0283609048344384e-02  3.2112877733133295e-02  3.3934770251420054e-02  3.5749301487337570e-02  3.7556486323043592e-02  3.9356339638615033e-02  4.1148876311942799e-02  4.2934111218627044e-02  4.4712059231872790e-02  4.6482735222386065e-02  4.8246154058270360e-02  5.0002330604923595e-02  5.1751279724935442e-02  5.3493016277985167e-02  5.5227555120739749e-02  5.6954911106752548e-02  5.8675099086362335e-02  6.0388133906592721e-02  6.2094030411052069e-02  6.3792803439833748e-02  6.5484467829416818e-02  6.7169038412567203e-02  6.8846530018239219e-02  7.0516957471477459e-02  7.2180335593319225e-02  7.3836679200697239e-02  7.5486003106342875e-02  7.7128322118689654e-02  7.8763651041777349e-02  8.0392004675156323e-02  8.2013397813792355e-02  8.3627845247971885e-02  8.5235361763207576e-02  8.6835962140144440e-02  8.8429661154466127e-02  9.0016473576801870e-02  9.1596414172633686e-02  9.3169497702204021e-02  9.4735738920423723e-02  9.6295152576780604e-02  9.7847753415248193e-02  9.9393556174194889e-02  1.0093257558629373e-01  1.0246482637843235e-01  1.0399032327162340e-01  1.0550908098091538e-01  1.0702111421530373e-01  1.0852643767764263e-01  1.1002506606455677e-01  1.1151701406635391e-01  1.1300229636693755e-01  1.1448092764372016e-01  1.1595292256753656e-01  1.1741829580255810e-01  1.1887706200620675e-01  1.2032923582906993e-01  1.2177483191481560e-01  1.2321386490010763e-01  1.2464634941452177e-01  1.2607230008046183e-01  1.2749173151307636e-01  1.2890465832017547e-01  1.3031109510214856e-01  1.3171105645188158e-01  1.3310455695467571e-01  1.3449161118816538e-01  1.3587223372223756e-01  1.3724643911895065e-01  1.3861424193245442e-01  1.3997565670890993e-01  1.4133069798640982e-01  1.4267938029489918e-01  1.4402171815609663e-01  1.4535772608341582e-01  1.4668741858188730e-01  1.4801081014808071e-01  1.4932791527002745e-01  1.5063874842714359e-01  1.5194332409015329e-01  1.5324165672101239e-01  1.5453376077283254e-01  1.5581965068980563e-01  1.5709934090712849e-01  1.5837284585092820e-01  1.5964017993818749e-01  1.6090135757667065e-01  1.6215639316484970e-01  1.6340530109183110e-01  1.6464809573728253e-01  1.6588479147136034e-01  1.6711540265463715e-01  1.6833994363802990e-01  1.6955842876272811e-01  1.7077087236012281e-01  1.7197728875173543e-01  1.7317769224914722e-01  1.7437209715392921e-01  1.7556051775757214e-01  1.7674296834141709e-01  1.7791946317658613e-01  1.7909001652391365e-01  1.8025464263387783e-01  1.8141335574653250e-01  1.8256617009143933e-01  1.8371309988760037e-01  1.8485415934339103e-01  1.8598936265649324e-01  1.8711872401382909e-01  1.8824225759149465e-01  1.8935997755469433e-01  1.9047189805767556e-01  1.9157803324366343e-01  1.9267839724479630e-01  1.9377300418206123e-01  1.9486186816523002e-01  1.9594500329279549e-01  1.9702242365190789e-01  1.9809414331831218e-01  1.9916017635628516e-01  2.0022053681857305e-01  2.0127523874632941e-01  2.0232429616905351e-01  2.0336772310452905e-01  2.0440553355876281e-01  2.0543774152592409e-01  2.0646436098828427e-01  2.0748540591615677e-01  2.0850089026783730e-01  2.0951082798954432e-01  2.1051523301535999e-01  2.1151411926717142e-01  2.1250750065461213e-01  2.1349539107500404e-01  2.1447780441329942e-01  2.1545475454202373e-01  2.1642625532121804e-01  2.1739232059838243e-01  2.1835296420841940e-01  2.1930819997357753e-01  2.2025804170339566e-01  2.2120250319464727e-01  2.2214159823128524e-01  2.2307534058438674e-01  2.2400374401209874e-01  2.2492682225958349e-01  2.2584458905896451e-01  2.2675705812927305e-01  2.2766424317639439e-01  2.2856615789301496e-01  2.2946281595856940e-01  2.3035423103918812e-01  2.3124041678764509e-01  2.3212138684330597e-01  2.3299715483207639e-01  2.3386773436635097e-01  2.3473313904496196e-01  2.3559338245312889e-01  2.3644847816240805e-01  2.3729843973064238e-01  2.3814328070191196e-01  2.3898301460648405e-01  2.3981765496076438e-01  2.4064721526724805e-01  2.4147170901447101e-01  2.4229114967696166e-01  2.4310555071519299e-01  2.4391492557553487e-01  2.4471928769020665e-01  2.4551865047722979e-01  2.4631302734038155e-01  2.4710243166914803e-01  2.4788687683867805e-01  2.4866637620973728e-01  2.4944094312866250e-01  2.5021059092731623e-01  2.5097533292304175e-01  2.5173518241861809e-01  2.5249015270221575e-01  2.5324025704735226e-01  2.5398550871284853e-01  2.5472592094278473e-01  2.5546150696645731e-01  2.5619227999833577e-01  2.5691825323801987e-01  2.5763943987019688e-01  2.5835585306459968e-01  2.5906750597596473e-01  2.5977441174398991e-01  2.6047658349329372e-01  2.6117403433337383e-01  2.6186677735856584e-01  2.6255482564800353e-01  2.6323819226557793e-01  2.6391689025989740e-01  2.6459093266424771e-01  2.6526033249655295e-01  2.6592510275933584e-01  2.6658525643967906e-01  2.6724080650918636e-01  2.6789176592394442e-01  2.6853814762448430e-01  2.6917996453574394e-01  2.6981722956703014e-01  2.7044995561198154e-01  2.7107815554853126e-01  2.7170184223887045e-01  2.7232102852941120e-01  2.7293572725075083e-01  2.7354595121763520e-01  2.7415171322892345e-01  2.7475302606755236e-01  2.7534990250050084e-01  2.7594235527875527e-01  2.7653039713727440e-01  2.7711404079495522e-01  2.7769329895459860e-01  2.7826818430287531e-01  2.7883870951029210e-01  2.7940488723115858e-01  2.7996673010355377e-01  2.8052425074929332e-01  2.8107746177389659e-01  2.8162637576655436e-01  2.8217100530009676e-01  2.8271136293096089e-01  2.8324746119915956e-01  2.8377931262824957e-01  2.8430692972530064e-01  2.8483032498086430e-01  2.8534951086894345e-01  2.8586449984696150e-01  2.8637530435573261e-01  2.8688193681943130e-01  2.8738440964556300e-01  2.8788273522493441e-01  2.8837692593162423e-01  2.8886699412295436e-01  2.8935295213946088e-01  2.8983481230486574e-01  2.9031258692604828e-01  2.9078628829301717e-01  2.9125592867888295e-01  2.9172152033983006e-01  2.9218307551508976e-01  2.9264060642691270e-01  2.9309412528054257e-01  2.9354364426418905e-01  2.9398917554900145e-01  2.9443073128904262e-01  2.9486832362126320e-01  2.9530196466547565e-01  2.9573166652432881e-01  2.9615744128328281e-01  2.9657930101058400e-01  2.9699725775724001e-01  2.9741132355699540e-01  2.9782151042630722e-01  2.9822783036432093e-01  2.9863029535284663e-01  2.9902891735633524e-01  2.9942370832185511e-01  2.9981468017906887e-01  3.0020184484021056e-01  3.0058521420006251e-01  3.0096480013593335e-01  3.0134061450763505e-01  3.0171266915746142e-01  3.0208097591016581e-01  3.0244554657293959e-01  3.0280639293539091e-01  3.0316352676952329e-01  3.0351695982971449e-01  3.0386670385269593e-01  3.0421277055753215e-01  3.0455517164560025e-01  3.0489391880056982e-01  3.0522902368838323e-01  3.0556049795723550e-01  3.0588835323755514e-01  3.0621260114198473e-01  3.0653325326536179e-01  3.0685032118469996e-01  3.0716381645917040e-01  3.0747375063008314e-01  3.0778013522086911e-01  3.0808298173706172e-01  3.0838230166627967e-01  3.0867810647820837e-01  3.0897040762458339e-01  3.0925921653917299e-01  3.0954454463776071e-01  3.0982640331812900e-01  3.1010480396004259e-01  3.1037975792523181e-01  3.1065127655737679e-01  3.1091937118209084e-01  3.1118405310690528e-01  3.1144533362125354e-01  3.1170322399645584e-01  3.1195773548570371e-01  3.1220887932404540e-01  3.1245666672837080e-01  3.1270110889739694e-01  3.1294221701165342e-01  3.1318000223346826e-01  3.1341447570695397e-01  3.1364564855799359e-01  3.1387353189422701e-01  3.1409813680503762e-01  3.1431947436153895e-01  3.1453755561656183e-01  3.1475239160464102e-01  3.1496399334200303e-01  3.1517237182655344e-01  3.1537753803786434e-01  3.1557950293716258e-01  3.1577827746731751e-01  3.1597387255282949e-01  3.1616629909981808e-01  3.1635556799601089e-01  3.1654169011073219e-01  3.1672467629489198e-01  3.1690453738097518e-01  3.1708128418303083e-01  3.1725492749666179e-01  3.1742547809901445e-01  3.1759294674876848e-01  3.1775734418612706e-01  3.1791868113280691e-01  3.1807696829202903e-01  3.1823221634850912e-01  3.1838443596844829e-01  3.1853363779952426e-01  3.1867983247088233e-01  3.1882303059312661e-01  3.1896324275831184e-01  3.1910047953993464e-01  3.1923475149292563e-01  3.1936606915364141e-01  3.1949444303985663e-01  3.1961988365075655e-01  3.1974240146692917e-01  3.1986200695035855e-01  3.1997871054441701e-01  3.2009252267385857e-01  3.2020345374481229e-01  3.2031151414477516e-01  3.2041671424260587e-01  3.2051906438851890e-01  3.2061857491407753e-01  3.2071525613218882e-01  3.2080911833709724e-01  3.2090017180437924e-01  3.2098842679093775e-01  3.2107389353499682e-01  3.2115658225609656e-01  3.2123650315508828e-01  3.2131366641412934e-01  3.2138808219667880e-01  3.2145976064749282e-01  3.2152871189262033e-01  3.2159494603939892e-01  3.2165847317645074e-01  3.2171930337367866e-01  3.2177744668226255e-01  3.2183291313465590e-01  3.2188571274458216e-01  3.2193585550703185e-01  3.2198335139825912e-01  3.2202821037577906e-01  3.2207044237836496e-01  3.2211005732604553e-01  3.2214706512010260e-01  3.2218147564306882e-01  3.2221329875872523e-01  3.2224254431209975e-01  3.2226922212946479e-01  3.2229334201833587e-01  3.2231491376747012e-01  3.2233394714686453e-01  3.2235045190775519e-01  3.2236443778261564e-01  3.2237591448515646e-01  3.2238489171032386e-01  3.2239137913429966e-01  3.2239538641450016e-01  3.2239692318957608e-01  3.2239599907941241e-01  3.2239262368512805e-01  3.2238680658907609e-01  3.2237855735484389e-01  3.2236788552725359e-01  3.2235480063236222e-01  3.2233931217746270e-01  3.2232142965108435e-01  3.2230116252299418e-01  3.2227852024419723e-01  3.2225351224693849e-01  3.2222614794470367e-01  3.2219643673222109e-01  3.2216438798546287e-01  3.2213001106164690e-01  3.2209331529923874e-01  3.2205431001795354e-01  3.2201300451875808e-01  3.2196940808387314e-01  3.2192352997677598e-01  3.2187537944220279e-01  3.2182496570615132e-01  3.2177229797588380e-01  3.2171738543992962e-01  3.2166023726808873e-01  3.2160086261143472e-01  3.2153927060231802e-01  3.2147547035436952e-01  3.2140947096250400e-01  3.2134128150292396e-01  3.2127091103312344e-01  3.2119836859189194e-01  3.2112366319931862e-01  3.2104680385679629e-01  3.2096779954702620e-01  3.2088665923402210e-01  3.2080339186311491e-01  3.2071800636095760e-01  3.2063051163552986e-01  3.2054091657614325e-01  3.2044923005344611e-01  3.2035546091942901e-01  3.2025961800742975e-01  3.2016171013213907e-01  3.2006174608960630e-01  3.1995973465724470e-01  3.1985568459383762e-01  3.1974960463954433e-01  3.1964150351590614e-01  3.1953138992585234e-01  3.1941927255370683e-01  3.1930516006519416e-01  3.1918906110744633e-01  3.1907098430900949e-01  3.1895093827985044e-01  3.1882893161136366e-01  3.1870497287637822e-01  3.1857907062916491e-01  3.1845123340544351e-01  3.1832146972238995e-01  3.1818978807864412e-01  3.1805619695431692e-01  3.1792070481099849e-01  3.1778332009176535e-01  3.1764405122118888e-01  3.1750290660534297e-01  3.1735989463181213e-01  3.1721502366969984e-01  3.1706830206963676e-01  3.1691973816378949e-01  3.1676934026586834e-01  3.1661711667113701e-01  3.1646307565642051e-01  3.1630722548011442e-01  3.1614957438219371e-01  3.1599013058422204e-01  3.1582890228936045e-01  3.1566589768237718e-01  3.1550112492965682e-01  3.1533459217920973e-01  3.1516630756068159e-01  3.1499627918536344e-01  3.1482451514620124e-01  3.1465102351780555e-01  3.1447581235646199e-01  3.1429888970014092e-01  3.1412026356850781e-01  3.1393994196293373e-01  3.1375793286650533e-01  3.1357424424403574e-01  3.1338888404207499e-01  3.1320186018892054e-01  3.1301318059462829e-01  3.1282285315102354e-01  3.1263088573171172e-01  3.1243728619208960e-01  3.1224206236935653e-01  3.1204522208252544e-01  3.1184677313243475e-01  3.1164672330175919e-01  3.1144508035502172e-01  3.1124185203860499e-01  3.1103704608076338e-01  3.1083067019163441e-01  3.1062273206325097e-01  3.1041323936955334e-01  3.1020219976640095e-01  3.0998962089158499e-01  3.0977551036484047e-01  3.0955987578785876e-01  3.0934272474429975e-01  3.0912406479980459e-01  3.0890390350200864e-01  3.0868224838055341e-01  3.0845910694710021e-01  3.0823448669534270e-01  3.0800839510101963e-01  3.0778083962192837e-01  3.0755182769793765e-01  3.0732136675100119e-01  3.0708946418517075e-01  3.0685612738660967e-01  3.0662136372360643e-01  3.0638518054658798e-01  3.0614758518813368e-01  3.0590858496298901e-01  3.0566818716807909e-01  3.0542639908252323e-01  3.0518322796764813e-01  3.0493868106700245e-01  3.0469276560637099e-01  3.0444548879378863e-01  3.0419685781955502e-01  3.0394687985624852e-01  3.0369556205874110e-01  3.0344291156421260e-01  3.0318893549216552e-01  3.0293364094443975e-01  3.0267703500522702e-01  3.0241912474108629e-01  3.0215991720095825e-01  3.0189941941618054e-01  3.0163763840050273e-01  3.0137458115010163e-01  3.0111025464359642e-01  3.0084466584206393e-01  3.0057782168905417e-01  3.0030972911060572e-01  3.0004039501526097e-01  2.9976982629408233e-01  2.9949802982066742e-01  2.9922501245116501e-01  2.9895078102429068e-01  2.9867534236134302e-01  2.9839870326621931e-01  2.9812087052543174e-01  2.9784185090812315e-01  2.9756165116608385e-01  2.9728027803376728e-01  2.9699773822830638e-01  2.9671403844953037e-01  2.9642918537998092e-01  2.9614318568492853e-01  2.9585604601238930e-01  2.9556777299314163e-01  2.9527837324074280e-01  2.9498785335154576e-01  2.9469621990471595e-01  2.9440347946224843e-01  2.9410963856898459e-01  2.9381470375262930e-01  2.9351868152376798e-01  2.9322157837588381e-01  2.9292340078537499e-01  2.9262415521157192e-01  2.9232384809675471e-01  2.9202248586617052e-01  2.9172007492805085e-01  2.9141662167362953e-01  2.9111213247715984e-01  2.9080661369593247e-01  2.9050007167029324e-01  2.9019251272366064e-01  2.8988394316254401e-01  2.8957436927656116e-01  2.8926379733845647e-01  2.8895223360411904e-01  2.8863968431260029e-01  2.8832615568613257e-01  2.8801165393014738e-01  2.8769618523329310e-01  2.8737975576745389e-01  2.8706237168776771e-01  2.8674403913264490e-01  2.8642476422378643e-01  2.8610455306620269e-01  2.8578341174823196e-01  2.8546134634155895e-01  2.8513836290123379e-01  2.8481446746569039e-01  2.8448966605676557e-01  2.8416396467971761e-01  2.8383736932324549e-01  2.8350988595950760e-01  2.8318152054414081e-01  2.8285227901627968e-01  2.8252216729857521e-01  2.8219119129721443e-01  2.8185935690193942e-01  2.8152666998606662e-01  2.8119313640650584e-01  2.8085876200378013e-01  2.8052355260204487e-01  2.8018751400910735e-01  2.7985065201644621e-01  2.7951297239923106e-01  2.7917448091634206e-01  2.7883518331038964e-01  2.7849508530773398e-01  2.7815419261850510e-01  2.7781251093662235e-01  2.7747004593981450e-01  2.7712680328963951e-01  2.7678278863150435e-01  2.7643800759468512e-01  2.7609246579234720e-01  2.7574616882156500e-01  2.7539912226334234e-01  2.7505133168263246e-01  2.7470280262835822e-01  2.7435354063343248e-01  2.7400355121477826e-01  2.7365283987334910e-01  2.7330141209414949e-01  2.7294927334625518e-01  2.7259642908283366e-01  2.7224288474116481e-01  2.7188864574266114e-01  2.7153371749288874e-01  2.7117810538158760e-01  2.7082181478269235e-01  2.7046485105435303e-01  2.7010721953895583e-01  2.6974892556314373e-01  2.6938997443783735e-01  2.6903037145825615e-01  2.6867012190393869e-01  2.6830923103876408e-01  2.6794770411097285e-01  2.6758554635318765e-01  2.6722276298243475e-01  2.6685935920016479e-01  2.6649534019227406e-01  2.6613071112912551e-01  2.6576547716557009e-01  2.6539964344096789e-01  2.6503321507920946e-01  2.6466619718873702e-01  2.6429859486256591e-01  2.6393041317830568e-01  2.6356165719818192e-01  2.6319233196905734e-01  2.6282244252245329e-01  2.6245199387457135e-01  2.6208099102631494e-01  2.6170943896331056e-01  2.6133734265592995e-01  2.6096470705931091e-01  2.6059153711337968e-01  2.6021783774287238e-01  2.5984361385735660e-01  2.5946887035125332e-01  2.5909361210385851e-01  2.5871784397936531e-01  2.5834157082688541e-01  2.5796479748047124e-01  2.5758752875913776e-01  2.5720976946688445e-01  2.5683152439271723e-01  2.5645279831067036e-01  2.5607359597982871e-01  2.5569392214434938e-01  2.5531378153348422e-01  2.5493317886160166e-01  2.5455211882820894e-01  2.5417060611797437e-01  2.5378864540074902e-01  2.5340624133158973e-01  2.5302339855078065e-01  2.5264012168385575e-01  2.5225641534162124e-01  2.5187228412017754e-01  2.5148773260094198e-01  2.5110276535067100e-01  2.5071738692148238e-01  2.5033160185087794e-01  2.4994541466176581e-01  2.4955882986248290e-01  2.4917185194681737e-01  2.4878448539403114e-01  2.4839673466888246e-01  2.4800860422164833e-01  2.4762009848814728e-01  2.4723122188976179e-01  2.4684197883346096e-01  2.4645237371182299e-01  2.4606241090305828e-01  2.4567209477103166e-01  2.4528142966528524e-01  2.4489041992106125e-01  2.4449906985932449e-01  2.4410738378678534e-01  2.4371536599592253e-01  2.4332302076500575e-01  2.4293035235811866e-01  2.4253736502518169e-01  2.4214406300197483e-01  2.4175045051016045e-01  2.4135653175730648e-01  2.4096231093690898e-01  2.4056779222841523e-01  2.4017297979724678e-01  2.3977787779482210e-01  2.3938249035857989e-01  2.3898682161200188e-01  2.3859087566463594e-01  2.3819465661211914e-01  2.3779816853620056e-01  2.3740141550476471e-01  2.3700440157185435e-01  2.3660713077769363e-01  2.3620960714871128e-01  2.3581183469756375e-01  2.3541381742315812e-01  2.3501555931067555e-01  2.3461706433159424e-01  2.3421833644371276e-01  2.3381937959117305e-01  2.3342019770448383e-01  2.3302079470054374e-01  2.3262117448266462e-01  2.3222134094059468e-01  2.3182129795054179e-01  2.3142104937519678e-01  2.3102059906375669e-01  2.3061995085194809e-01  2.3021910856205030e-01  2.2981807600291895e-01  2.2941685697000905e-01  2.2901545524539846e-01  2.2861387459781127e-01  2.2821211878264100e-01  2.2781019154197421e-01  2.2740809660461370e-01  2.2700583768610205e-01  2.2660341848874491e-01  2.2620084270163437e-01  2.2579811400067265e-01  2.2539523604859518e-01  2.2499221249499424e-01  2.2458904697634244e-01  2.2418574311601613e-01  2.2378230452431880e-01  2.2337873479850451e-01  2.2297503752280176e-01  2.2257121626843646e-01  2.2216727459365576e-01  2.2176321604375143e-01  2.2135904415108346e-01  2.2095476243510348e-01  2.2055037440237829e-01  2.2014588354661349e-01  2.1974129334867692e-01  2.1933660727662227e-01  2.1893182878571266e-01  2.1852696131844404e-01  2.1812200830456890e-01  2.1771697316111982e-01  2.1731185929243288e-01  2.1690667009017153e-01  2.1650140893334993e-01  2.1609607918835655e-01  2.1569068420897794e-01  2.1528522733642216e-01  2.1487971189934241e-01  2.1447414121386055e-01  2.1406851858359091e-01  2.1366284729966381e-01  2.1325713064074903e-01  2.1285137187307959e-01  2.1244557425047536e-01  2.1203974101436654e-01  2.1163387539381745e-01  2.1122798060554998e-01  2.1082205985396743e-01  2.1041611633117788e-01  2.1001015321701808e-01  2.0960417367907683e-01  2.0919818087271888e-01  2.0879217794110821e-01  2.0838616801523205e-01  2.0798015421392424e-01  2.0757413964388893e-01  2.0716812739972429e-01  2.0676212056394605e-01  2.0635612220701116e-01  2.0595013538734139e-01  2.0554416315134708e-01  2.0513820853345069e-01  2.0473227455611043e-01  2.0432636422984388e-01  2.0392048055325165e-01  2.0351462651304097e-01  2.0310880508404933e-01  2.0270301922926814e-01  2.0229727189986629e-01  2.0189156603521374e-01  2.0148590456290527e-01  2.0108029039878411e-01  2.0067472644696532e-01  2.0026921559985963e-01  1.9986376073819689e-01  1.9945836473104989e-01  1.9905303043585762e-01  1.9864776069844925e-01  1.9824255835306739e-01  1.978374262223919