<?xml version="1.0"?>
<VTKFile type="UnstructuredGrid"  version="0.1"  >
<UnstructuredGrid>
<Piece  NumberOfPoints="2049" NumberOfCells="2048">
<Points>
<DataArray  type="Float64"  NumberOfComponents="3"  format="ascii">0 0 0  0.0048828125 0 0  0.009765625 0 0  0.0146484375 0 0  0.01953125 0 0  0.0244140625 0 0  0.029296875 0 0  0.0341796875 0 0  0.0390625 0 0  0.0439453125 0 0  0.048828125 0 0  0.0537109375 0 0  0.05859375 0 0  0.0634765625 0 0  0.068359375 0 0  0.0732421875 0 0  0.078125 0 0  0.0830078125 0 0  0.087890625 0 0  0.0927734375 0 0  0.09765625 0 0  0.1025390625 0 0  0.107421875 0 0  0.1123046875 0 0  0.1171875 0 0  0.1220703125 0 0  0.126953125 0 0  0.1318359375 0 0  0.13671875 0 0  0.1416015625 0 0  0.146484375 0 0  0.1513671875 0 0  0.15625 0 0  0.1611328125 0 0  0.166015625 0 0  0.1708984375 0 0  0.17578125 0 0  0.1806640625 0 0  0.185546875 0 0  0.1904296875 0 0  0.1953125 0 0  0.2001953125 0 0  0.205078125 0 0  0.2099609375 0 0  0.21484375 0 0  0.2197265625 0 0  0.224609375 0 0  0.2294921875 0 0  0.234375 0 0  0.2392578125 0 0  0.244140625 0 0  0.2490234375 0 0  0.25390625 0 0  0.2587890625 0 0  0.263671875 0 0  0.2685546875 0 0  0.2734375 0 0  0.2783203125 0 0  0.283203125 0 0  0.2880859375 0 0  0.29296875 0 0  0.2978515625 0 0  0.302734375 0 0  0.3076171875 0 0  0.3125 0 0  0.3173828125 0 0  0.322265625 0 0  0.3271484375 0 0  0.33203125 0 0  0.3369140625 0 0  0.341796875 0 0  0.3466796875 0 0  0.3515625 0 0  0.3564453125 0 0  0.361328125 0 0  0.3662109375 0 0  0.37109375 0 0  0.3759765625 0 0  0.380859375 0 0  0.3857421875 0 0  0.390625 0 0  0.3955078125 0 0  0.400390625 0 0  0.4052734375 0 0  0.41015625 0 0  0.4150390625 0 0  0.419921875 0 0  0.4248046875 0 0  0.4296875 0 0  0.4345703125 0 0  0.439453125 0 0  0.4443359375 0 0  0.44921875 0 0  0.4541015625 0 0  0.458984375 0 0  0.4638671875 0 0  0.46875 0 0  0.4736328125 0 0  0.478515625 0 0  0.4833984375 0 0  0.48828125 0 0  0.4931640625 0 0  0.498046875 0 0  0.5029296875 0 0  0.5078125 0 0  0.5126953125 0 0  0.517578125 0 0  0.5224609375 0 0  0.52734375 0 0  0.5322265625 0 0  0.537109375 0 0  0.5419921875 0 0  0.546875 0 0  0.5517578125 0 0  0.556640625 0 0  0.5615234375 0 0  0.56640625 0 0  0.5712890625 0 0  0.576171875 0 0  0.5810546875 0 0  0.5859375 0 0  0.5908203125 0 0  0.595703125 0 0  0.6005859375 0 0  0.60546875 0 0  0.6103515625 0 0  0.615234375 0 0  0.6201171875 0 0  0.625 0 0  0.6298828125 0 0  0.634765625 0 0  0.6396484375 0 0  0.64453125 0 0  0.6494140625 0 0  0.654296875 0 0  0.6591796875 0 0  0.6640625 0 0  0.6689453125 0 0  0.673828125 0 0  0.6787109375 0 0  0.68359375 0 0  0.6884765625 0 0  0.693359375 0 0  0.6982421875 0 0  0.703125 0 0  0.7080078125 0 0  0.712890625 0 0  0.7177734375 0 0  0.72265625 0 0  0.7275390625 0 0  0.732421875 0 0  0.7373046875 0 0  0.7421875 0 0  0.7470703125 0 0  0.751953125 0 0  0.7568359375 0 0  0.76171875 0 0  0.7666015625 0 0  0.771484375 0 0  0.7763671875 0 0  0.78125 0 0  0.7861328125 0 0  0.791015625 0 0  0.7958984375 0 0  0.80078125 0 0  0.8056640625 0 0  0.810546875 0 0  0.8154296875 0 0  0.8203125 0 0  0.8251953125 0 0  0.830078125 0 0  0.8349609375 0 0  0.83984375 0 0  0.8447265625 0 0  0.849609375 0 0  0.8544921875 0 0  0.859375 0 0  0.8642578125 0 0  0.869140625 0 0  0.8740234375 0 0  0.87890625 0 0  0.8837890625 0 0  0.888671875 0 0  0.8935546875 0 0  0.8984375 0 0  0.9033203125 0 0  0.908203125 0 0  0.9130859375 0 0  0.91796875 0 0  0.9228515625 0 0  0.927734375 0 0  0.9326171875 0 0  0.9375 0 0  0.9423828125 0 0  0.947265625 0 0  0.9521484375 0 0  0.95703125 0 0  0.9619140625 0 0  0.966796875 0 0  0.9716796875 0 0  0.9765625 0 0  0.9814453125 0 0  0.986328125 0 0  0.9912109375 0 0  0.99609375 0 0  1.0009765625 0 0  1.005859375 0 0  1.0107421875 0 0  1.015625 0 0  1.0205078125 0 0  1.025390625 0 0  1.0302734375 0 0  1.03515625 0 0  1.0400390625 0 0  1.044921875 0 0  1.0498046875 0 0  1.0546875 0 0  1.0595703125 0 0  1.064453125 0 0  1.0693359375 0 0  1.07421875 0 0  1.0791015625 0 0  1.083984375 0 0  1.0888671875 0 0  1.09375 0 0  1.0986328125 0 0  1.103515625 0 0  1.1083984375 0 0  1.11328125 0 0  1.1181640625 0 0  1.123046875 0 0  1.1279296875 0 0  1.1328125 0 0  1.1376953125 0 0  1.142578125 0 0  1.1474609375 0 0  1.15234375 0 0  1.1572265625 0 0  1.162109375 0 0  1.1669921875 0 0  1.171875 0 0  1.1767578125 0 0  1.181640625 0 0  1.1865234375 0 0  1.19140625 0 0  1.1962890625 0 0  1.201171875 0 0  1.2060546875 0 0  1.2109375 0 0  1.2158203125 0 0  1.220703125 0 0  1.2255859375 0 0  1.23046875 0 0  1.2353515625 0 0  1.240234375 0 0  1.2451171875 0 0  1.25 0 0  1.2548828125 0 0  1.259765625 0 0  1.2646484375 0 0  1.26953125 0 0  1.2744140625 0 0  1.279296875 0 0  1.2841796875 0 0  1.2890625 0 0  1.2939453125 0 0  1.298828125 0 0  1.3037109375 0 0  1.30859375 0 0  1.3134765625 0 0  1.318359375 0 0  1.3232421875 0 0  1.328125 0 0  1.3330078125 0 0  1.337890625 0 0  1.3427734375 0 0  1.34765625 0 0  1.3525390625 0 0  1.357421875 0 0  1.3623046875 0 0  1.3671875 0 0  1.3720703125 0 0  1.376953125 0 0  1.3818359375 0 0  1.38671875 0 0  1.3916015625 0 0  1.396484375 0 0  1.4013671875 0 0  1.40625 0 0  1.4111328125 0 0  1.416015625 0 0  1.4208984375 0 0  1.42578125 0 0  1.4306640625 0 0  1.435546875 0 0  1.4404296875 0 0  1.4453125 0 0  1.4501953125 0 0  1.455078125 0 0  1.4599609375 0 0  1.46484375 0 0  1.4697265625 0 0  1.474609375 0 0  1.4794921875 0 0  1.484375 0 0  1.4892578125 0 0  1.494140625 0 0  1.4990234375 0 0  1.50390625 0 0  1.5087890625 0 0  1.513671875 0 0  1.5185546875 0 0  1.5234375 0 0  1.5283203125 0 0  1.533203125 0 0  1.5380859375 0 0  1.54296875 0 0  1.5478515625 0 0  1.552734375 0 0  1.5576171875 0 0  1.5625 0 0  1.5673828125 0 0  1.572265625 0 0  1.5771484375 0 0  1.58203125 0 0  1.5869140625 0 0  1.591796875 0 0  1.5966796875 0 0  1.6015625 0 0  1.6064453125 0 0  1.611328125 0 0  1.6162109375 0 0  1.62109375 0 0  1.6259765625 0 0  1.630859375 0 0  1.6357421875 0 0  1.640625 0 0  1.6455078125 0 0  1.650390625 0 0  1.6552734375 0 0  1.66015625 0 0  1.6650390625 0 0  1.669921875 0 0  1.6748046875 0 0  1.6796875 0 0  1.6845703125 0 0  1.689453125 0 0  1.6943359375 0 0  1.69921875 0 0  1.7041015625 0 0  1.708984375 0 0  1.7138671875 0 0  1.71875 0 0  1.7236328125 0 0  1.728515625 0 0  1.7333984375 0 0  1.73828125 0 0  1.7431640625 0 0  1.748046875 0 0  1.7529296875 0 0  1.7578125 0 0  1.7626953125 0 0  1.767578125 0 0  1.7724609375 0 0  1.77734375 0 0  1.7822265625 0 0  1.787109375 0 0  1.7919921875 0 0  1.796875 0 0  1.8017578125 0 0  1.806640625 0 0  1.8115234375 0 0  1.81640625 0 0  1.8212890625 0 0  1.826171875 0 0  1.8310546875 0 0  1.8359375 0 0  1.8408203125 0 0  1.845703125 0 0  1.8505859375 0 0  1.85546875 0 0  1.8603515625 0 0  1.865234375 0 0  1.8701171875 0 0  1.875 0 0  1.8798828125 0 0  1.884765625 0 0  1.8896484375 0 0  1.89453125 0 0  1.8994140625 0 0  1.904296875 0 0  1.9091796875 0 0  1.9140625 0 0  1.9189453125 0 0  1.923828125 0 0  1.9287109375 0 0  1.93359375 0 0  1.9384765625 0 0  1.943359375 0 0  1.9482421875 0 0  1.953125 0 0  1.9580078125 0 0  1.962890625 0 0  1.9677734375 0 0  1.97265625 0 0  1.9775390625 0 0  1.982421875 0 0  1.9873046875 0 0  1.9921875 0 0  1.9970703125 0 0  2.001953125 0 0  2.0068359375 0 0  2.01171875 0 0  2.0166015625 0 0  2.021484375 0 0  2.0263671875 0 0  2.03125 0 0  2.0361328125 0 0  2.041015625 0 0  2.0458984375 0 0  2.05078125 0 0  2.0556640625 0 0  2.060546875 0 0  2.0654296875 0 0  2.0703125 0 0  2.0751953125 0 0  2.080078125 0 0  2.0849609375 0 0  2.08984375 0 0  2.0947265625 0 0  2.099609375 0 0  2.1044921875 0 0  2.109375 0 0  2.1142578125 0 0  2.119140625 0 0  2.1240234375 0 0  2.12890625 0 0  2.1337890625 0 0  2.138671875 0 0  2.1435546875 0 0  2.1484375 0 0  2.1533203125 0 0  2.158203125 0 0  2.1630859375 0 0  2.16796875 0 0  2.1728515625 0 0  2.177734375 0 0  2.1826171875 0 0  2.1875 0 0  2.1923828125 0 0  2.197265625 0 0  2.2021484375 0 0  2.20703125 0 0  2.2119140625 0 0  2.216796875 0 0  2.2216796875 0 0  2.2265625 0 0  2.2314453125 0 0  2.236328125 0 0  2.2412109375 0 0  2.24609375 0 0  2.2509765625 0 0  2.255859375 0 0  2.2607421875 0 0  2.265625 0 0  2.2705078125 0 0  2.275390625 0 0  2.2802734375 0 0  2.28515625 0 0  2.2900390625 0 0  2.294921875 0 0  2.2998046875 0 0  2.3046875 0 0  2.3095703125 0 0  2.314453125 0 0  2.3193359375 0 0  2.32421875 0 0  2.3291015625 0 0  2.333984375 0 0  2.3388671875 0 0  2.34375 0 0  2.3486328125 0 0  2.353515625 0 0  2.3583984375 0 0  2.36328125 0 0  2.3681640625 0 0  2.373046875 0 0  2.3779296875 0 0  2.3828125 0 0  2.3876953125 0 0  2.392578125 0 0  2.3974609375 0 0  2.40234375 0 0  2.4072265625 0 0  2.412109375 0 0  2.4169921875 0 0  2.421875 0 0  2.4267578125 0 0  2.431640625 0 0  2.4365234375 0 0  2.44140625 0 0  2.4462890625 0 0  2.451171875 0 0  2.4560546875 0 0  2.4609375 0 0  2.4658203125 0 0  2.470703125 0 0  2.4755859375 0 0  2.48046875 0 0  2.4853515625 0 0  2.490234375 0 0  2.4951171875 0 0  2.5 0 0  2.5048828125 0 0  2.509765625 0 0  2.5146484375 0 0  2.51953125 0 0  2.5244140625 0 0  2.529296875 0 0  2.5341796875 0 0  2.5390625 0 0  2.5439453125 0 0  2.548828125 0 0  2.5537109375 0 0  2.55859375 0 0  2.5634765625 0 0  2.568359375 0 0  2.5732421875 0 0  2.578125 0 0  2.5830078125 0 0  2.587890625 0 0  2.5927734375 0 0  2.59765625 0 0  2.6025390625 0 0  2.607421875 0 0  2.6123046875 0 0  2.6171875 0 0  2.6220703125 0 0  2.626953125 0 0  2.6318359375 0 0  2.63671875 0 0  2.6416015625 0 0  2.646484375 0 0  2.6513671875 0 0  2.65625 0 0  2.6611328125 0 0  2.666015625 0 0  2.6708984375 0 0  2.67578125 0 0  2.6806640625 0 0  2.685546875 0 0  2.6904296875 0 0  2.6953125 0 0  2.7001953125 0 0  2.705078125 0 0  2.7099609375 0 0  2.71484375 0 0  2.7197265625 0 0  2.724609375 0 0  2.7294921875 0 0  2.734375 0 0  2.7392578125 0 0  2.744140625 0 0  2.7490234375 0 0  2.75390625 0 0  2.7587890625 0 0  2.763671875 0 0  2.7685546875 0 0  2.7734375 0 0  2.7783203125 0 0  2.783203125 0 0  2.7880859375 0 0  2.79296875 0 0  2.7978515625 0 0  2.802734375 0 0  2.8076171
[...]
<PointData  Scalars="f_673"> 
<DataArray  type="Float64"  Name="f_673"  format="ascii">0.0000000000000000e+00  4.8590094472523715e-03  9.6705680065617312e-03  1.4434908494775061e-02  1.9152263706768913e-02  2.3822866404616467e-02  2.8446949306861407e-02  3.3024745077898127e-02  3.7556486317457678e-02  4.2042405550198995e-02  4.6482735215404823e-02  5.0877707656781797e-02  5.5227555112364254e-02  5.9532509704521105e-02  6.3792803430065353e-02  6.8008668150465676e-02  7.2180335582159569e-02  7.6308037286967431e-02  8.0392004662607264e-02  8.4432468933309218e-02  8.8429661140529747e-02  9.2383812133764412e-02  9.6295152561459374e-02  1.0016391286202052e-01  1.0399032325492005e-01  1.0777461373189985e-01  1.1151701404827112e-01  1.1521775371430988e-01  1.1887706198674752e-01  1.2249516786035640e-01  1.2607230005962927e-01  1.2960868703055270e-01  1.3310455693247342e-01  1.3656013763005750e-01  1.3997565668534162e-01  1.4335134134987579e-01  1.4668741855695722e-01  1.4998411491395502e-01  1.5324165669472467e-01  1.5646026983211203e-01  1.5964017991054655e-01  1.6278161215872292e-01  1.6588479144237064e-01  1.6894994225711113e-01  1.7197728872140194e-01  1.7496705456956715e-01  1.7791946314491414e-01  1.8083473739293526e-01  1.8371309985459508e-01  1.8655477265970152e-01  1.8935997752036110e-01  1.9212893572451772e-01  1.9486186812957437e-01  1.9755899515609696e-01  2.0022053678160046e-01  2.0284671253441613e-01  2.0543774148763996e-01  2.0799384225316106e-01  2.1051523297577052e-01  2.1300213132734930e-01  2.1545475450113533e-01  2.1787331920606862e-01  2.2025804166121468e-01  2.2260913759026535e-01  2.2492682221611643e-01  2.2721131025552169e-01  2.2946281591382317e-01  2.3168155287975675e-01  2.3386773432033262e-01  2.3602157287579043e-01  2.3814328065462842e-01  2.4023306922870616e-01  2.4229114962842019e-01  2.4431773233795215e-01  2.4631302729058949e-01  2.4827724386411718e-01  2.5021059087628111e-01  2.5211327658032168e-01  2.5398550866057795e-01  2.5582749422816126e-01  2.5763943981669829e-01  2.5942155137814266e-01  2.6117403427865510e-01  2.6289709329455119e-01  2.6459093260831651e-01  2.6625575580468924e-01  2.6789176586680830e-01  2.6949916517242795e-01  2.7107815549019793e-01  2.7262893797600879e-01  2.7415171316940118e-01  2.7564668099004014e-01  2.7711404073425228e-01  2.7855399107162659e-01  2.7996673004167821e-01  2.8135245505057421e-01  2.8271136286792109e-01  2.8404364962361411e-01  2.8534951080474752e-01  2.8662914125258498e-01  2.8788273515959062e-01  2.8911048606651896e-01  2.9031258685956490e-01  2.9148922976757197e-01  2.9264060635929878e-01  2.9376690754074380e-01  2.9486832355252734e-01  2.9594504396733062e-01  2.9699725768739099e-01  2.9802515294205428e-01  2.9902891728538183e-01  3.0000873759381330e-01  3.0096480006388443e-01  3.0189729020999911e-01  3.0280639286225558e-01  3.0369229216432564e-01  3.0455517157138817e-01  3.0539521384811424e-01  3.0621260106670539e-01  3.0700751460498332e-01  3.0778013514453162e-01  3.0853064266888780e-01  3.0925921646178689e-01  3.0996603510545484e-01  3.1065127647895152e-01  3.1131511775656406e-01  3.1195773540624844e-01  3.1257930518811983e-01  3.1318000215299202e-01  3.1376000064096327e-01  3.1431947428005103e-01  3.1485859598487287e-01  3.1537753795537415e-01  3.1587647167560262e-01  3.1635556791252784e-01  3.1681499671490704e-01  3.1725492741219563e-01  3.1767552861350251e-01  3.1807696820658965e-01  3.1845941335691580e-01  3.1882303050672367e-01  3.1916798537417013e-01  3.1949444295249957e-01  3.1980256750925928e-01  3.2009252258555743e-01  3.2036447099536208e-01  3.2061857482484207e-01  3.2085499543174839e-01  3.2107389344483678e-01  3.2127542876332943e-01  3.2145976055641795e-01  3.2162704726280450e-01  3.2177744659028290e-01  3.2191111551535823e-01  3.2202821028290446e-01  3.2212888640586096e-01  3.2221329866496573e-01  3.2228160110852683e-01  3.2233394705223012e-01  3.2237048907898397e-01  3.2239137903880022e-01  3.2239676804871098e-01  3.2238680649272111e-01  3.2236164402179590e-01  3.2232142955388371e-01  3.2226631127397304e-01  3.2219643663418412e-01  3.2211195235389384e-01  3.2201300441989489e-01  3.2189973808658745e-01  3.2177229787620443e-01  3.2163082757906891e-01  3.2147547025388362e-01  3.2130636822805286e-01  3.2112366309803553e-01  3.2092749572972956e-01  3.2071800625888730e-01  3.2049533409156150e-01  3.2025961790458163e-01  3.2001099564606011e-01  3.1974960453592804e-01  3.1947558106650065e-01  3.1918906100307165e-01  3.1889017938453612e-01  3.1857907052404166e-01  3.1825586800966837e-01  3.1792070470513611e-01  3.1757371275053897e-01  3.1721502356310771e-01  3.1684476783799842e-01  3.1646307554910813e-01  3.1607007594991660e-01  3.1566589757435409e-01  3.1525066823769510e-01  3.1482451503747699e-01  3.1438756435444448e-01  3.1393994185351803e-01  3.1348177248478776e-01  3.1301318048453092e-01  3.1253428937625360e-01  3.1204522197175644e-01  3.1154610037222302e-01  3.1103704596933218e-01  3.1051817944639271e-01  3.0998962077950082e-01  3.0945148923871951e-01  3.0890390338928075e-01  3.0834698109280906e-01  3.0778083950856611e-01  3.0720559509471729e-01  3.0662136360961889e-01  3.0602826011312584e-01  3.0542639896792018e-01  3.0481589384085950e-01  3.0419685770434562e-01  3.0356940283771244e-01  3.0293364082863339e-01  3.0228968257454830e-01  3.0163763828410850e-01  3.0097761747864143e-01  3.0030972899363284e-01  2.9963408098022770e-01  2.9895078090674859e-01  2.9825993556023200e-01  2.9756165104798182e-01  2.9685603279914025e-01  2.9614318556627545e-01  2.9542321342698580e-01  2.9469621978552074e-01  2.9396230737441770e-01  2.9322157825615514e-01  2.9247413382482124e-01  2.9172007480779810e-01  2.9095950126746090e-01  2.9019251260289292e-01  2.8941920755161432e-01  2.8863968419132646e-01  2.8785403994166975e-01  2.8706237156599657e-01  2.8626477517315696e-01  2.8546134621929914e-01  2.8465217950968275e-01  2.8383736920050556e-01  2.8301700880074365e-01  2.8219119117400326e-01  2.8136000854038695e-01  2.8052355247837063e-01  2.7968191392669367e-01  2.7883518318626072e-01  2.7798344992205515e-01  2.7712680316506472e-01  2.7626533131421754e-01  2.7539912213833034e-01  2.7452826277806708e-01  2.7365283974790811e-01  2.7277293893813070e-01  2.7188864561679926e-01  2.7100004443176590e-01  2.7010721941268140e-01  2.6921025397301518e-01  2.6830923091208558e-01  2.6740423241709932e-01  2.6649534006519981e-01  2.6558263482552547e-01  2.6466619706127553e-01  2.6374610653178598e-01  2.6282244239461261e-01  2.6189528320762356e-01  2.6096470693109930e-01  2.6003079092984038e-01  2.5909361197528397e-01  2.5815324624762653e-01  2.5720976933795536e-01  2.5626325625038615e-01  2.5531378140420863e-01  2.5436141863603834e-01  2.5340624120197569e-01  2.5244832177977122e-01  2.5148773247099726e-01  2.5052454480322645e-01  2.4955882973221535e-01  2.4859065764409449e-01  2.4762009835756449e-01  2.4664722112609686e-01  2.4567209464014131e-01  2.4469478702933742e-01  2.4371536586473203e-01  2.4273389816100122e-01  2.4175045037867721e-01  2.4076508842638009e-01  2.3977787766305358e-01  2.3878888290020595e-01  2.3779816840415421e-01  2.3680579789827291e-01  2.3581183456524699e-01  2.3481634104932775e-01  2.3381937945859307e-01  2.3282101136721095e-01  2.3182129781770613e-01  2.3082029932323017e-01  2.2981807586983447e-01  2.2881468691874635e-01  2.2781019140864781e-01  2.2680464775795678e-01  2.2579811386711132e-01  2.2479064712085575e-01  2.2378230439052921e-01  2.2277314203635648e-01  2.2176321590974060e-01  2.2075258135555736e-01  2.1974129321445177e-01  2.1872940582513573e-01  2.1771697302668752e-01  2.1670404816085251e-01  2.1569068407434522e-01  2.1467693312115246e-01  2.1366284716483716e-01  2.1264847758084363e-01  2.1163387525880328e-01  2.1061909060484094e-01  2.0960417354388167e-01  2.0858917352195838e-01  2.0757413950851911e-01  2.0655911999873519e-01  2.0554416301580891e-01  2.0452931611328154e-01  2.0351462637734100e-01  2.0250014042912923e-01  2.0148590442704950e-01  2.0047196406907294e-01  1.9945836459504465e-01  1.9844515078898914e-01  1.9743236698141498e-01  1.9642005705161847e-01  1.9540826442998654e-01  1.9439703210029852e-01  1.9338640260202636e-01  1.9237641803263431e-01  1.9136712004987652e-01  1.9035854987409359e-01  1.8935074829050727e-01  1.8834375565151396e-01  1.8733761187897582e-01  1.8633235646651072e-01  1.8532802848177968e-01  1.8432466656877272e-01  1.8332230895009230e-01  1.8232099342923466e-01  1.8132075739286910e-01  1.8032163781311458e-01  1.7932367124981380e-01  1.7832689385280531e-01  1.7733134136419218e-01  1.7633704912060863e-01  1.7534405205548376e-01  1.7435238470130204e-01  1.7336208119186117e-01  1.7237317526452703e-01  1.7138570026248520e-01  1.7039968913698947e-01  1.6941517444960710e-01  1.6843218837446081e-01  1.6745076270046713e-01  1.6647092883357165e-01  1.6549271779898034e-01  1.6451616024338747e-01  1.6354128643719987e-01  1.6256812627675721e-01  1.6159670928654873e-01  1.6062706462142595e-01  1.5965922106881122e-01  1.5869320705090253e-01  1.5772905062687434e-01  1.5676677949507359e-01  1.5580642099521227e-01  1.5484800211055530e-01  1.5389154947010403e-01  1.5293708935077546e-01  1.5198464767957701e-01  1.5103425003577653e-01  1.5008592165306817e-01  1.4913968742173317e-01  1.4819557189079596e-01  1.4725359927017589e-01  1.4631379343283377e-01  1.4537617791691360e-01  1.4444077592787952e-01  1.4350761034064771e-01  1.4257670370171324e-01  1.4164807823127173e-01  1.4072175582533605e-01  1.3979775805784778e-01  1.3887610618278332e-01  1.3795682113625499e-01  1.3703992353860645e-01  1.3612543369650290e-01  1.3521337160501606e-01  1.3430375694970320e-01  1.3339660910868109e-01  1.3249194715469426e-01  1.3158978985717737e-01  1.3069015568431247e-01  1.2979306280507996e-01  1.2889852909130442e-01  1.2800657211969407e-01  1.2711720917387492e-01  1.2623045724641871e-01  1.2534633304086515e-01  1.2446485297373809e-01  1.2358603317655582e-01  1.2270988949783534e-01  1.2183643750509053e-01  1.2096569248682422e-01  1.2009766945451425e-01  1.1923238314459328e-01  1.1836984802042250e-01  1.1751007827425890e-01  1.1665308782921663e-01  1.1579889034122179e-01  1.1494749920096102e-01  1.1409892753582367e-01  1.1325318821183769e-01  1.1241029383559900e-01  1.1157025675619454e-01  1.1073308906711880e-01  1.0989880260818367e-01  1.0906740896742212e-01  1.0823891948298509e-01  1.0741334524503181e-01  1.0659069709761361e-01  1.0577098564055107e-01  1.0495422123130441e-01  1.0414041398683739e-01  1.0332957378547439e-01  1.0252171026875073e-01  1.0171683284325642e-01  1.0091495068247289e-01  1.0011607272860321e-01  9.9320207694395202e-02  9.8527364064958031e-02  9.7737550099571635e-02  9.6950773833489573e-02  9.6167043079734740e-02  9.5386365430888381e-02  9.4608748260872025e-02  9.3834198726722565e-02  9.3062723770360345e-02  9.2294330120350265e-02  9.1529024293655892e-02  9.0766812597386684e-02  9.0007701130537965e-02  8.9251695785724103e-02  8.8498802250904382e-02  8.7749026011102127e-02  8.7002372350116458e-02  8.6258846352227136e-02  8.5518452903892261e-02  8.4781196695438821e-02  8.4047082222746178e-02  8.3316113788922383e-02  8.2588295505973339e-02  8.1863631296464817e-02  8.1142124895177400e-02  8.0423779850754135e-02  7.9708599527340968e-02  7.8996587106220234e-02  7.8287745587436633e-02  7.7582077791416224e-02  7.6879586360578150e-02  7.6180273760939166e-02  7.5484142283710823e-02  7.4791194046889567e-02  7.4101430996839648e-02  7.3414854909868529e-02  7.2731467393795407e-02  7.2051269889512159e-02  7.1374263672537241e-02  7.0700449854562322e-02  7.0029829384991540e-02  6.9362403052473612e-02  6.8698171486426665e-02  6.8037135158555764e-02  6.7379294384363200e-02  6.6724649324651511e-02  6.6073199987019257e-02  6.5424946227349498e-02  6.4779887751291051e-02  6.4138024115732370e-02  6.3499354730268298e-02  6.2863878858659489e-02  6.2231595620284567e-02  6.1602503991585046e-02  6.0976602807502951e-02  6.0353890762911221e-02  5.9734366414036857e-02  5.9118028179876790e-02  5.8504874343606496e-02  5.7894903053981435e-02  5.7288112326731172e-02  5.6684500045946294e-02  5.6084063965458092e-02  5.5486801710211059e-02  5.4892710777628050e-02  5.4301788538968339e-02  5.3714032240678437e-02  5.3129439005735683e-02  5.2548005834984639e-02  5.1969729608466325e-02  5.1394607086740221e-02  5.0822634912199113e-02  5.0253809610376815e-02  4.9688127591248646e-02  4.9125585150524786e-02  4.8566178470936534e-02  4.8009903623515322e-02  4.7456756568864701e-02  4.6906733158425161e-02  4.6359829135731820e-02  4.5816040137665076e-02  4.5275361695694086e-02  4.4737789237113204e-02  4.4203318086271363e-02  4.3671943465794352e-02  4.3143660497800093e-02  4.2618464205106836e-02  4.2096349512434336e-02  4.1577311247597983e-02  4.1061344142696007e-02  4.0548442835289626e-02  4.0038601869576182e-02  3.9531815697555400e-02  3.9028078680188580e-02  3.8527385088550949e-02  3.8029729104976970e-02  3.7535104824198862e-02  3.7043506254478074e-02  3.6554927318729974e-02  3.6069361855641600e-02  3.5586803620782571e-02  3.5107246287709136e-02  3.4630683449061374e-02  3.4157108617653593e-02  3.3686515227557924e-02  3.3218896635181072e-02  3.2754246120334361e-02  3.2292556887296965e-02  3.1833822065872396e-02  3.1378034712438281e-02  3.0925187810989404e-02  3.0475274274174027e-02  3.0028286944323575e-02  2.9584218594475603e-02  2.9143061929390150e-02  2.8704809586559427e-02  2.8269454137210888e-02  2.7836988087303713e-02  2.7407403878518692e-02  2.6980693889241531e-02  2.6556850435539639e-02  2.6135865772132328e-02  2.5717732093354550e-02  2.5302441534114092e-02  2.4889986170842312e-02  2.4480358022438413e-02  2.4073549051207236e-02  2.3669551163790669e-02  2.3268356212092618e-02  2.2869955994197617e-02  2.2474342255282994e-02  2.2081506688524790e-02  2.1691440935997230e-02  2.1304136589565974e-02  2.0919585191775007e-02  2.0537778236727262e-02  2.0158707170959016e-02  1.9782363394307990e-02  1.9408738260775299e-02  1.9037823079381126e-02  1.8669609115014273e-02  1.8304087589275521e-02  1.7941249681314851e-02  1.7581086528662544e-02  1.7223589228054205e-02  1.6868748836249649e-02  1.6516556370845790e-02  1.6167002811083436e-02  1.5820079098648097e-02  1.5475776138464780e-02  1.5134084799486800e-02  1.4794995915478643e-02  1.4458500285792878e-02  1.4124588676141171e-02  1.3793251819359387e-02  1.3464480416166817e-02  1.3138265135919557e-02  1.2814596617358046e-02  1.2493465469348807e-02  1.2174862271620379e-02  1.1858777575493492e-02  1.1545201904605494e-02  1.1234125755629038e-02  1.0925539598985078e-02  1.0619433879550191e-02  1.0315799017358200e-02  1.0014625408296205e-02  9.7159034247949558e-03  9.4196234165136537e-03  9.1257757110191663e-03  8.8343506144596962e-03  8.5453384122329175e-03  8.2587293696486010e-03  7.9745137325857567e-03  7.6926817281443138e-03  7.4132235652913502e-03  7.1361294355019129e-03  6.8613895133944327e-03  6.5889939573607692e-03  6.3189329101908994e-03  6.0511964996922797e-03  5.7857748393038934e-03  5.5226580287050207e-03  5.2618361544187380e-03  5.0032992904101839e-03  4.7470374986795967e-03  4.4930408298501697e-03  4.2412993237507263e-03  3.9918030099932392e-03  3.7445419085452365e-03  3.4995060302970863e-03  3.2566853776242128e-03  3.0160699449442441e-03  2.7776497192691292e-03  2.5414146807522346e-03  2.3073548032304558e-03  2.0754600547613538e-03  1.8457203981553541e-03  1.6181257915030146e-03  1.3926661886973983e-03  1.1693315399515672e-03  9.4811179231122191e-04  7.2899689016250879e-04  5.1197677573502117e-04  2.9704138960001046e-04  8.4180671163838411e-05  -1.2661544084331363e-04  -3.3535700788345126e-04  -5.4205409113146840e-04  -7.4671675100052015e-04  -9.4935504667204430e-04  -1.1499790356304085e-03  -1.3485987732021597e-03  -1.5452243120998555e-03  -1.7398657019704500e-03  -1.9325329889482159e-03  -2.1232362152121781e-03  -2.3119854185480329e-03  -2.4987906319145384e-03  -2.6836618830143417e-03  -2.8666091938692323e-03  -3.0476425803997865e-03  -3.2267720520093926e-03  -3.4040076111726222e-03  -3.5793592530279352e-03  -3.7528369649746872e-03  -3.9244507262744246e-03  -4.0942105076564360e-03  -4.2621262709275423e-03  -4.4282079685861097e-03  -4.5924655434402464e-03  -4.7549089282301702e-03  -4.9155480452547301e-03  -5.0743928060020477e-03  -5.2314531107842616e-03  -5.3867388483763521e-03  -5.5402598956590266e-03  -5.6920261172656349e-03  -5.8420473652330968e-03  -5.9903334786568290e-03  -6.1368942833496237e-03  -6.2817395915044857e-03  -6.4248792013613908e-03  -6.5663228968779368e-03  -6.7060804474038810e-03  -6.8441616073595295e-03  -6.9805761159179606e-03  -7.1153336966910657e-03  -7.2484440574193667e-03  -7.3799168896656201e-03  -7.5097618685121444e-03  -7.6379886522618869e-03  -7.7646068821431904e-03  -7.8896261820182254e-03  -8.0130561580951040e-03  -8.1349063986436033e-03  -8.2551864737145150e-03  -8.3739059348625980e-03  -8.4910743148730750e-03  -8.6067011274916991e-03  -8.7207958671583468e-03  -8.8333680087440952e-03  -8.9444270072918091e-03  -9.0539822977601710e-03  -9.1620432947711571e-03  -9.2686193923609429e-03  -9.3737199637341888e-03  -9.4773543610217181e-03  -9.5795319150415326e-03  -9.6802619350631770e-03  -9.7795537085754152e-03  -9.8774165010571870e-03  -9.9738595557518437e-03  -1.0068892093444626e-02  -1.0162523312243385e-02  -1.0254762387362486e-02  -1.0345618470909923e-02  -1.0435100691677583e-02  -1.0523218154934656e-02  -1.0609979942224184e-02  -1.0695395111162692e-02  -1.0779472695242912e-02  -1.0862221703639570e-02  -1.0943651121018218e-02  -1.1023769907347070e-02  -1.1102586997711855e-02  -1.1180111302133649e-02  -1.1256351705389652e-02  -1.1331317066836922e-02  -1.1405016220239018e-02  -1.1477457973595553e-02  -1.1548651108974607e-02  -1.1618604382348014e-02  -1.1687326523429489e-02  -1.1754826235515561e-02  -1.1821112195329329e-02  -1.1886193052866952e-02  -1.1950077431246970e-02  -1.2012773926562291e-02  -1.2074291107734942e-02  -1.2134637516373514e-02  -1.2193821666633282e-02  -1.2251852045078988e-02  -1.2308737110550272e-02  -1.2364485294029724e-02  -1.2419104998513534e-02  -1.2472604598884739e-02  -1.2524992441789019e-02  -1.2576276845513060e-02  -1.2626466099865430e-02  -1.2675568466059968e-02  -1.2723592176601661e-02  -1.2770545435175007e-02  -1.2816436416534804e-02  -1.2861273266399395e-02  -1.2905064101346325e-02  -1.2947817008710380e-02  -1.2989540046484019e-02  -1.3030241243220168e-02  -1.3069928597937347e-02  -1.3108610080027120e-02  -1.3146293629163853e-02  -1.3182987155216763e-02  -1.3218698538164233e-02  -1.3253435628010372e-02  -1.3287206244703821e-02  -1.3320018178058762e-02  -1.3351879187678129e-02  -1.3382797002879001e-02  -1.3412779322620163e-02  -1.3441833815431790e-02  -1.3469968119347283e-02  -1.3497189841837199e-02  -1.3523506559745274e-02  -1.3548925819226542e-02  -1.3573455135687470e-02  -1.3597101993728182e-02  -1.3619873847086664e-02  -1.3641778118585012e-02  -1.3662822200077635e-02  -1.3683013452401463e-02  -1.3702359205328082e-02  -1.3720866757517830e-02  -1.3738543376475804e-02  -1.3755396298509781e-02  -1.3771432728690011e-02  -1.3786659840810910e-02  -1.3801084777354587e-02  -1.3814714649456218e-02  -1.3827556536871247e-02  -1.3839617487944393e-02  -1.3850904519580444e-02  -1.3861424617216836e-02  -1.3871184734797988e-02  -1.3880191794751376e-02  -1.3888452687965337e-02  -1.3895974273768584e-02  -1.3902763379911432e-02  -1.3908826802548679e-02  -1.3914171306224186e-02  -1.3918803623857064e-02  -1.3922730456729530e-02  -1.3925958474476384e-02  -1.3928494315076057e-02  -1.3930344584843286e-02  -1.3931515858423329e-02  -1.3932014678787775e-02  -1.3931847557231864e-02  -1.3931020973373349e-02  -1.3929541375152888e-02  -1.3927415178835908e-02  -1.3924648769015968e-02  -1.3921248498619596e-02  -1.3917220688912577e-02  -1.3912571629507677e-02  -1.3907307578373803e-02  -1.3901434761846569e-02  -1.3894959374640262e-02  -1.3887887579861190e-02  -1.3880225509022417e-02  -1.3871979262059827e-02  -1.3863154907349538e-02  -1.3853758481726665e-02  -1.3843795990505375e-02  -1.3833