<?xml version="1.0"?>
<VTKFile type="UnstructuredGrid"  version="0.1"  >
<UnstructuredGrid>
<Piece  NumberOfPoints="21" NumberOfCells="20">
<Points>
<DataArray  type="Float64"  NumberOfComponents="3"  format="ascii">0 0 0  0.05 0 0  0.1 0 0  0.15 0 0  0.2 0 0  0.25 0 0  0.3 0 0  0.35 0 0  0.4 0 0  0.45 0 0  0.5 0 0  0.55 0 0  0.6 0 0  0.65 0 0  0.7 0 0  0.75 0 0  0.8 0 0  0.85 0 0  0.9 0 0  0.95 0 0  1 0 0  </DataArray>
</Points>
<Cells>
<DataArray  type="UInt32"  Name="connectivity"  format="ascii">0 1  1 2  2 3  3 4  4 5  5 6  6 7  7 8  8 9  9 10  10 11  11 12  12 13  13 14  14 15  15 16  16 17  17 18  18 19  19 20  </DataArray>
<DataArray  type="UInt32"  Name="offsets"  format="ascii">2 4 6 8 10 12 14 16 18 20 22 24 26 28 30 32 34 36 38 40 </DataArray>
<DataArray  type="UInt8"  Name="types"  format="ascii">3 3 3 3 3 3 3 3 3 3 3 3 3 3 3 3 3 3 3 3 </DataArray>
</Cells>
<PointData  Scalars="f_9"> 
<DataArray  type="Float64"  Name="f_9"  format="ascii">0.0000000000000000e+00  1.2500000000067268e-03  5.0000000000134477e-03  1.1250000000020162e-02  2.0000000000026871e-02  3.1250000000033563e-02  4.5000000000040237e-02  6.1250000000046899e-02  8.0000000000053501e-02  1.0125000000005999e-01  1.2500000000006642e-01  1.5125000000007266e-01  1.8000000000007851e-01  2.1125000000008404e-01  2.4500000000008901e-01  2.8125000000009348e-01  3.2000000000009737e-01  3.6125000000010049e-01  4.0500000000010283e-01  4.5125000000010423e-01  5.0000000000010458e-01  </DataArray> 
</PointData> 
</Piece>
</UnstructuredGrid>
</VTKFile>